24
Atoms. Timestep: 0
C 0 0.71 16.75
C 1.22976 1.42 16.75
C 1.22976 2.84 16.75
C 0 3.55 16.75
C 0 4.97 16.75
C 1.22976 5.68 16.75
C 1.22976 7.1 16.75
C 0 7.81 16.75
C 2.45951 0.71 16.75
C 3.68927 1.42 16.75
C 3.68927 2.84 16.75
C 2.45951 3.55 16.75
C 2.45951 4.97 16.75
C 3.68927 5.68 16.75
C 3.68927 7.1 16.75
C 2.45951 7.81 16.75
C 4.91902 0.71 16.75
C 6.14878 1.42 16.75
C 6.14878 2.84 16.75
C 4.91902 3.55 16.75
C 4.91902 4.97 16.75
C 6.14878 5.68 16.75
C 6.14878 7.1 16.75
C 4.91902 7.81 16.75
24
Atoms. Timestep: 100
C -0.0767798 0.686719 16.7288
C 1.15115 1.41316 16.7439
C 1.15791 2.84072 16.7302
C -0.0831815 3.56215 16.7195
C -0.0786424 4.99061 16.7579
C 1.16542 5.70272 16.7731
C 1.16634 7.13216 16.768
C -0.075307 7.84364 16.757
C 2.39926 0.696637 16.7299
C 3.63929 1.40818 16.7153
C 3.64245 2.83751 16.7276
C 2.40064 3.55064 16.7246
C 2.40112 4.97655 16.7719
C 3.63548 5.69191 16.7774
C 3.64294 7.13013 16.7684
C 2.40706 7.84966 16.7542
C 4.87803 0.683613 16.7251
C 6.1232 1.40577 16.7309
C 6.11608 2.83857 16.7162
C 4.87221 3.55242 16.7287
C 4.8726 4.97976 16.7665
C 6.10884 5.70261 16.7831
C 6.11728 7.13007 16.7724
C 4.88288 7.84137 16.7543
24
Atoms. Timestep: 200
C -0.118207 0.693305 16.7853
C 1.11751 1.40973 16.7893
C 1.12918 2.84238 16.7452
C -0.118751 3.559 16.7653
C -0.10502 4.99383 16.7637
C 1.1282 5.70285 16.7521
C 1.12907 7.13903 16.7597
C -0.116679 7.84667 16.7596
C 2.36609 0.693222 16.7841
C 3.59731 1.41085 16.7776
C 3.60297 2.84199 16.7634
C 2.36643 3.55151 16.7502
C 2.36537 4.98894 16.747
C 3.61204 5.70385 16.7451
C 3.60096 7.13933 16.7673
C 2.35921 7.85071 16.7622
C 4.83813 0.698168 16.7681
C 6.07947 1.40691 16.7615
C 6.08938 2.83567 16.7601
C 4.84735 3.55033 16.7533
C 4.84945 4.98825 16.7643
C 6.08321 5.70622 16.7589
C 6.07723 7.13732 16.7609
C 4.83277 7.85363 16.7715
24
Atoms. Timestep: 300
C -0.151231 0.692199 16.7691
C 1.08218 1.40974 16.7717
C 1.07947 2.83711 16.7754
C -0.160005 3.55503 16.7827
C -0.155609 4.98636 16.7862
C 1.07823 5.69748 16.7686
C 1.08139 7.14031 16.7602
C -0.160492 7.84999 16.7556
C 2.32341 0.700113 16.7727
C 3.56735 1.41114 16.7703
C 3.56218 2.84944 16.7781
C 2.32054 3.55467 16.7871
C 2.31418 4.98287 16.7678
C 3.56128 5.69614 16.7555
C 3.55049 7.12684 16.7702
C 2.32124 7.84496 16.7756
C 4.80788 0.696612 16.7816
C 6.04388 1.41352 16.7677
C 6.03214 2.83911 16.771
C 4.79936 3.55871 16.7881
C 4.80161 4.99177 16.7552
C 6.0424 5.6989 16.7673
C 6.03731 7.12875 16.7783
C 4.7969 7.84828 16.7592
24
Atoms. Timestep: 400
C -0.203246 0.686819 16.7497
C 1.03419 1.39804 16.7564
C 1.03606 2.82362 16.7617
C -0.20218 3.5389 16.7517
C -0.209175 4.97331 16.7404
C 1.03736 5.69632 16.7456
C 1.04379 7.12718 16.7467
C -0.19647 7.84238 16.7423
C 2.27387 0.678244 16.7424
C 3.51214 1.39173 16.7257
C 3.51124 2.82805 16.7426
C 2.27723 3.5415 16.7754
C 2.26549 4.96919 16.752
C 3.50847 5.68463 16.7586
C 3.5186 7.11384 16.7421
C 2.28844 7.82842 16.7377
C 4.74773 0.676293 16.7495
C 5.98837 1.39395 16.7389
C 5.98632 2.82565 16.7455
C 4.75262 3.55002 16.747
C 4.75955 4.97624 16.7641
C 5.99745 5.68728 16.7721
C 5.99478 7.11901 16.7447
C 4.76175 7.82868 16.7387
24
Atoms. Timestep: 500
C -0.233846 0.700234 16.7463
C 1.00798 1.40775 16.7263
C 0.997026 2.83769 16.7377
C -0.238283 3.55536 16.7273
C -0.239401 4.98808 16.7191
C 1.00203 5.69999 16.7464
C 0.993408 7.12378 16.7464
C -0.235182 7.8505 16.7384
C 2.23716 0.688759 16.718
C 3.47582 1.40883 16.7221
C 3.47585 2.83676 16.7292
C 2.2407 3.54404 16.7417
C 2.24194 4.98036 16.7515
C 3.4764 5.70099 16.7627
C 3.47442 7.13265 16.7536
C 2.23282 7.8475 16.7353
C 4.71902 0.694241 16.7352
C 5.95393 1.40723 16.7495
C 5.95679 2.836 16.7383
C 4.71815 3.55218 16.7306
C 4.72282 4.97255 16.7624
C 5.95056 5.69467 16.7533
C 5.9491 7.13401 16.74
C 4.71602 7.84905 16.7369
24
Atoms. Timestep: 600
C -0.293113 0.684088 16.7292
C 0.947653 1.39323 16.7165
C 0.953241 2.82534 16.7174
C -0.281022 3.54541 16.7078
C -0.283026 4.98031 16.7266
C 0.951541 5.69982 16.7131
C 0.956077 7.12255 16.7136
C -0.281819 7.83891 16.7079
C 2.18886 0.680087 16.714
C 3.42914 1.39833 16.7273
C 3.4248 2.83483 16.7237
C 2.18608 3.54095 16.7227
C 2.18692 4.9784 16.7215
C 3.42694 5.69223 16.7353
C 3.43706 7.12517 16.7384
C 2.19479 7.83575 16.7217
C 4.6782 0.677401 16.7345
C 5.90573 1.40384 16.7281
C 5.9109 2.83621 16.6922
C 4.66623 3.54409 16.7021
C 4.6717 4.97009 16.7131
C 5.90211 5.68889 16.7187
C 5.91782 7.12131 16.7053
C 4.68457 7.83744 16.721
24
Atoms. Timestep: 700
C -0.322183 0.677433 16.7571
C 0.920747 1.39572 16.7299
C 0.925222 2.82304 16.731
C -0.30784 3.54375 16.7087
C -0.307614 4.97365 16.7177
C 0.931803 5.69435 16.6989
C 0.928969 7.12003 16.7012
C -0.320227 7.83155 16.735
C 2.16297 0.68076 16.7279
C 3.41161 1.39017 16.7542
C 3.41101 2.81589 16.7289
C 2.17267 3.53975 16.7294
C 2.16999 4.96776 16.6991
C 3.40764 5.6869 16.6855
C 3.4022 7.11899 16.6903
C 2.16589 7.83715 16.7048
C 4.64506 0.677534 16.7554
C 5.88016 1.40046 16.737
C 5.88678 2.82793 16.714
C 4.6448 3.53835 16.7157
C 4.65022 4.96784 16.7023
C 5.88519 5.68503 16.7181
C 5.87026 7.11108 16.7499
C 4.64526 7.8332 16.739
24
Atoms. Timestep: 800
C -0.348106 0.692185 16.6818
C 0.885344 1.41635 16.6813
C 0.883448 2.84464 16.699
C -0.35799 3.55631 16.7279
C -0.362446 4.98417 16.7332
C 0.88089 5.70131 16.7308
C 0.885277 7.13256 16.7208
C -0.353292 7.84734 16.7118
C 2.12478 0.693356 16.7097
C 3.3665 1.40096 16.7054
C 3.36421 2.83102 16.7349
C 2.12216 3.55287 16.7268
C 2.12261 4.97726 16.7421
C 3.36393 5.69476 16.7242
C 3.36657 7.12853 16.7172
C 2.12498 7.8481 16.7131
C 4.60675 0.689955 16.6915
C 5.84692 1.41024 16.6764
C 5.83558 2.83979 16.7171
C 4.59539 3.54822 16.7494
C 4.59473 4.98431 16.7372
C 5.83942 5.701 16.724
C 5.83951 7.12634 16.7305
C 4.60461 7.84841 16.7203
24
Atoms. Timestep: 900
C -0.39109 0.689569 16.7265
C 0.844984 1.39874 16.736
C 0.853029 2.8325 16.7121
C -0.384459 3.55404 16.7339
C -0.384549 4.98266 16.6994
C 0.853668 5.6901 16.702
C 0.850636 7.12227 16.7307
C -0.387632 7.84062 16.7378
C 2.09066 0.677588 16.7327
C 3.3217 1.39859 16.704
C 3.328 2.83294 16.7064
C 2.09038 3.54033 16.6989
C 2.09618 4.97547 16.7248
C 3.33505 5.68661 16.7234
C 3.32992 7.11605 16.7278
C 2.08526 7.82728 16.7209
C 4.56063 0.686708 16.703
C 5.80464 1.39395 16.7306
C 5.81214 2.82519 16.7535
C 4.57853 3.5445 16.7236
C 4.57339 4.97685 16.7038
C 5.81209 5.70055 16.6797
C 5.81096 7.12734 16.7004
C 4.56095 7.83995 16.7167
24
Atoms. Timestep: 1000
C -0.426207 0.681834 16.7131
C 0.823453 1.39697 16.7123
C 0.822967 2.8201 16.7112
C -0.417822 3.53419 16.7112
C -0.430962 4.9625 16.692
C 0.80638 5.68709 16.6986
C 0.809569 7.1178 16.7161
C -0.422733 7.83937 16.7385
C 2.05966 0.674066 16.7033
C 3.29664 1.39064 16.7053
C 3.29035 2.82093 16.7032
C 2.05769 3.53252 16.7045
C 2.05292 4.96488 16.708
C 3.28524 5.67872 16.7184
C 3.28736 7.10771 16.7291
C 2.04956 7.83009 16.7222
C 4.52653 0.671586 16.7075
C 5.77338 1.39021 16.7064
C 5.78126 2.81854 16.6967
C 4.53812 3.53111 16.6909
C 4.53448 4.96151 16.6858
C 5.764 5.67862 16.6808
C 5.77455 7.11565 16.7343
C 4.53065 7.82422 16.7288
24
Atoms. Timestep: 1100
C 7.005 0.673859 16.702
C 0.814515 1.39335 16.6911
C 0.807544 2.82043 16.717
C 7.00677 3.54144 16.7185
C 7.01679 4.97153 16.7256
C 0.823113 5.6882 16.7061
C 0.81783 7.1199 16.6964
C 7.01099 7.83225 16.7103
C 2.05458 0.664232 16.689
C 3.29436 1.38272 16.712
C 3.28491 2.81632 16.7401
C 2.05201 3.54019 16.7359
C 2.05928 4.96963 16.6986
C 3.29028 5.68307 16.7014
C 3.29293 7.10879 16.703
C 2.05632 7.82932 16.6979
C 4.53054 0.667535 16.6841
C 5.77004 1.38775 16.684
C 5.76883 2.82148 16.7222
C 4.52246 3.53981 16.7392
C 4.53809 4.971 16.7228
C 5.77507 5.67641 16.7183
C 5.77402 7.11232 16.7021
C 4.53666 7.81916 16.7069
24
Atoms. Timestep: 1200
C 7.01548 0.676969 16.7158
C 0.813478 1.39595 16.7172
C 0.816369 2.82299 16.7116
C 7.01445 3.53748 16.7039
C 7.01121 4.97221 16.7081
C 0.814309 5.67857 16.7076
C 0.811885 7.11661 16.7327
C 7.008 7.82605 16.7127
C 2.05245 0.678667 16.7129
C 3.29226 1.38747 16.6998
C 3.30105 2.81346 16.7285
C 2.06342 3.5309 16.6981
C 2.04997 4.96284 16.6782
C 3.288 5.67972 16.6905
C 3.28815 7.1089 16.7146
C 2.05379 7.83449 16.7429
C 4.53793 0.682477 16.7082
C 5.77303 1.39739 16.7102
C 5.77339 2.81922 16.7069
C 4.53071 3.53233 16.7123
C 4.52809 4.96396 16.6808
C 5.76926 5.67525 16.713
C 5.76628 7.10886 16.7064
C 4.53137 7.82786 16.7151
24
Atoms. Timestep: 1300
C 7.0169 0.668427 16.706
C 0.805761 1.38587 16.6949
C 0.810128 2.82554 16.7197
C 7.00971 3.54017 16.7113
C 7.01156 4.9712 16.6911
C 0.815208 5.67858 16.7066
C 0.817669 7.11483 16.7012
C 7.01502 7.82743 16.705
C 2.04967 0.676251 16.7038
C 3.28647 1.38312 16.6924
C 3.29001 2.81905 16.7038
C 2.05208 3.53927 16.7238
C 2.05209 4.96527 16.7036
C 3.30004 5.68365 16.6989
C 3.30037 7.11573 16.7327
C 2.06076 7.82845 16.7175
C 4.53561 0.669018 16.7162
C 5.76731 1.39018 16.7232
C 5.76809 2.81612 16.7155
C 4.53144 3.53313 16.7177
C 4.53126 4.96471 16.7084
C 5.77355 5.68926 16.6968
C 5.76815 7.11696 16.6957
C 4.53288 7.82855 16.7283
24
Atoms. Timestep: 1400
C 7.01725 0.674966 16.6944
C 0.81596 1.38467 16.7164
C 0.814559 2.81926 16.7265
C 7.01089 3.53565 16.7348
C 7.01118 4.96389 16.706
C 0.80845 5.68316 16.7047
C 0.809028 7.10518 16.7133
C 7.01147 7.83192 16.7072
C 2.05805 0.675109 16.6801
C 3.29469 1.39756 16.6913
C 3.29722 2.82757 16.7099
C 2.05638 3.54232 16.732
C 2.05071 4.96794 16.7276
C 3.29691 5.67945 16.7135
C 3.28893 7.1141 16.6945
C 2.04678 7.82056 16.6929
C 4.53295 0.670613 16.6981
C 5.77198 1.39099 16.7016
C 5.76839 2.82067 16.7183
C 4.53881 3.53037 16.7128
C 4.53414 4.96183 16.7103
C 5.7693 5.69071 16.7097
C 5.76668 7.11306 16.7215
C 4.52892 7.82576 16.7037
24
Atoms. Timestep: 1500
C 7.0086 0.682629 16.6998
C 0.816135 1.39055 16.7091
C 0.811498 2.81133 16.701
C 7.01368 3.53019 16.6911
C 7.01682 4.95832 16.6855
C 0.809713 5.6843 16.6921
C 0.816013 7.10823 16.7203
C 7.00884 7.83447 16.7373
C 2.05177 0.677349 16.7358
C 3.29192 1.39632 16.7485
C 3.28955 2.8242 16.7074
C 2.04592 3.53451 16.6982
C 2.05682 4.96474 16.686
C 3.2924 5.6826 16.7015
C 3.29845 7.11679 16.7108
C 2.05997 7.8288 16.7243
C 4.52836 0.672381 16.7116
C 5.76788 1.38435 16.7023
C 5.76507 2.82448 16.7024
C 4.53278 3.5321 16.7102
C 4.53646 4.96599 16.7028
C 5.77324 5.68423 16.688
C 5.77297 7.11159 16.7372
C 4.53749 7.82732 16.7182
24
Atoms. Timestep: 1600
C 7.00614 0.668887 16.6997
C 0.816724 1.38556 16.7002
C 0.82001 2.81754 16.7069
C 7.01116 3.53969 16.7431
C 7.01756 4.96932 16.727
C 0.811577 5.68862 16.7068
C 0.812625 7.11249 16.713
C 7.01167 7.82139 16.7132
C 2.05151 0.670062 16.701
C 3.29479 1.38589 16.7071
C 3.29873 2.82036 16.7103
C 2.05875 3.53701 16.7061
C 2.05382 4.97153 16.7154
C 3.28311 5.6852 16.7045
C 3.28865 7.1158 16.6928
C 2.05437 7.83024 16.7037
C 4.53666 0.670554 16.6892
C 5.7753 1.38094 16.6953
C 5.76668 2.82753 16.736
C 4.53522 3.54404 16.725
C 4.52963 4.97039 16.7103
C 5.76923 5.67355 16.7142
C 5.77282 7.11032 16.6978
C 4.5307 7.8293 16.699
24
Atoms. Timestep: 1700
C 7.01305 0.675237 16.7052
C 0.811616 1.39901 16.7064
C 0.814987 2.82263 16.7215
C 7.01023 3.53306 16.7075
C 7.00975 4.96493 16.6952
C 0.821252 5.67833 16.7118
C 0.816179 7.11081 16.6929
C 7.01234 7.82158 16.6975
C 2.05228 0.684248 16.7043
C 3.29075 1.39177 16.6973
C 3.28453 2.81306 16.725
C 2.05411 3.5261 16.714
C 2.0569 4.96596 16.7146
C 3.29339 5.68239 16.7258
C 3.29433 7.11422 16.734
C 2.05759 7.83479 16.7177
C 4.53477 0.677801 16.711
C 5.77461 1.39092 16.7233
C 5.77334 2.81917 16.7087
C 4.52766 3.5378 16.7061
C 4.53533 4.96673 16.6932
C 5.77245 5.67328 16.6959
C 5.76729 7.10907 16.6987
C 4.53119 7.83436 16.7191
24
Atoms. Timestep: 1800
C 7.01322 0.665619 16.7436
C 0.810713 1.38883 16.7183
C 0.814068 2.82289 16.7109
C 7.0107 3.53716 16.6968
C 7.00092 4.96713 16.7036
C 0.818925 5.68116 16.7065
C 0.816483 7.11534 16.7057
C 7.01658 7.82762 16.7282
C 2.05844 0.668185 16.7024
C 3.2937 1.38945 16.6939
C 3.2926 2.82125 16.7046
C 2.0588 3.53765 16.7188
C 2.05291 4.9751 16.6865
C 3.29459 5.68397 16.6819
C 3.28711 7.11418 16.713
C 2.04925 7.82487 16.7118
C 4.53267 0.674249 16.7182
C 5.76926 1.38793 16.7187
C 5.77787 2.81008 16.7023
C 4.53308 3.53766 16.6946
C 4.53006 4.96391 16.6965
C 5.76847 5.68458 16.7178
C 5.77336 7.11775 16.7139
C 4.53258 7.8317 16.7304
24
Atoms. Timestep: 1900
C 7.01129 0.671313 16.6804
C 0.8163 1.39264 16.7051
C 0.812444 2.82252 16.7108
C 7.01417 3.53476 16.7064
C 7.00474 4.96327 16.7246
C 0.810836 5.6777 16.7123
C 0.812957 7.11605 16.7129
C 7.0074 7.83294 16.6798
C 2.05984 0.669934 16.6995
C 3.29281 1.39089 16.712
C 3.28941 2.8296 16.741
C 2.04826 3.53884 16.7316
C 2.05662 4.96581 16.7116
C 3.30118 5.6813 16.7152
C 3.29452 7.10779 16.6937
C 2.05177 7.82512 16.7152
C 4.52671 0.676592 16.6966
C 5.76337 1.39333 16.6877
C 5.77651 2.81488 16.7006
C 4.5328 3.5361 16.7421
C 4.53521 4.96596 16.7281
C 5.77451 5.68401 16.7214
C 5.7754 7.11426 16.7008
C 4.53476 7.82198 16.688
24
Atoms. Timestep: 2000
C 7.00638 0.677542 16.7175
C 0.816276 1.38735 16.7118
C 0.812952 2.81821 16.707
C 7.00769 3.52795 16.7127
C 7.01594 4.96536 16.7039
C 0.809388 5.68701 16.7097
C 0.811953 7.11897 16.7312
C 7.00871 7.83368 16.7294
C 2.0578 0.674798 16.7192
C 3.2996 1.38708 16.7218
C 3.29592 2.82044 16.6762
C 2.05139 3.53674 16.6846
C 2.05362 4.95918 16.687
C 3.29173 5.68261 16.6905
C 3.29484 7.10773 16.7144
C 2.05011 7.82963 16.7147
C 4.53286 0.682347 16.7115
C 5.77331 1.39547 16.7285
C 5.77124 2.81841 16.7193
C 4.53339 3.53142 16.7021
C 4.52951 4.97085 16.7026
C 5.77183 5.68066 16.7008
C 5.77418 7.11199 16.7159
C 4.53223 7.82411 16.7139
