LAMMPS (29 Oct 2020)
#Generated by GS JUNG@ORNL
units           metal
dimension       3
boundary        p p p
atom_style      charge
atom_modify     sort 0 0.0    # turn off sorting of the coordinates
read_data       graphene.data
Reading data file ...
  orthogonal box = (0.0000000 0.0000000 0.0000000) to (7.3785364 8.5200000 33.500000)
  1 by 1 by 1 MPI processor grid
  reading atoms ...
  24 atoms
  read_data CPU = 0.000 seconds

# initialize system

velocity	all create 10.0 87287 loop geom

pair_style      zero 5.2
pair_coeff	* *

neighbor        1.0 bin
neigh_modify    every 1 delay 0 check yes

variable	dt equal 0.001
timestep        ${dt}
timestep        0.001
dump		equil all xyz 100 equil.xyz
dump_modify     equil element H He Li Be B C N O

fix             integ   all nve
fix             baros all press/berendsen x 0.0 0.0 1000.0 y 0.0 0.0 1000.0
python          post_force_callback file animpi.py
fix             2 all python/torch 1 post_force post_force_callback
fix_modify      2 energy yes

fix             therm   all langevin  10.0 10.0  0.1 699483
fix	        moment  all momentum 100 linear 1 1 1 angular

thermo      	100
thermo_style 	custom step temp ke pe press pxx pyy pzz xlo xhi ylo yhi
thermo_modify   norm no flush yes
run 		1000
Neighbor list info ...
  update every 1 steps, delay 0 steps, check yes
  max neighbors/atom: 2000, page size: 100000
  master list distance cutoff = 6.2
  ghost atom cutoff = 6.2
  binsize = 3.1, bins = 3 3 11
  1 neighbor lists, perpetual/occasional/extra = 1 0 0
  (1) pair zero, perpetual
      attributes: half, newton on
      pair build: half/bin/atomonly/newton
      stencil: half/bin/3d/newton
      bin: standard
Per MPI rank memory allocation (min/avg/max) = 4.064 | 4.064 | 4.064 Mbytes
Step Temp KinEng PotEng Press Pxx Pyy Pzz Xlo Xhi Ylo Yhi 
       0           10  0.029729833   -1122.1109     7967.266    11944.099    11946.358    11.341738            0    7.3785364            0         8.52 
     100    7.8265412  0.023268177   -1122.1968    29.433678   -43.262372     136.2238   -4.6603915 -0.026707643    7.4052441 -0.031204017     8.551204 
     200    6.5173803  0.019376063   -1122.1952   0.56763112    250.16698   -243.05819   -5.4059001 -0.027053025    7.4055895 -0.031423552    8.5514236 
     300    11.546679  0.034328085   -1122.1961   -6.9730076    145.01954   -162.47586   -3.4627007 -0.027160393    7.4056968 -0.031397752    8.5513978 
     400    10.411025  0.030951804   -1122.1924   -14.911987    24.720717   -67.043171    -2.413507 -0.027017701    7.4055541 -0.031580401    8.5515804 
     500    7.8195652  0.023247437   -1122.1954   -1.8779372   -49.451932    41.557719     2.260401 -0.026932007    7.4054684 -0.031572312    8.5515723 
     600    8.9786873  0.026693488   -1122.1936    2.0342864    21.377236   -17.469118    2.1947412 -0.027023557      7.40556 -0.031446416    8.5514464 
     700    8.0761105  0.024010142   -1122.1951   -8.1025179   -254.80691    233.33229   -2.8329374 -0.026824926    7.4053614 -0.031344044     8.551344 
     800    11.052409  0.032858629   -1122.2006   -6.7059735   -120.44835    101.19694   -0.8665174 -0.026851344    7.4053878  -0.03138844    8.5513884 
     900    7.8691922  0.023394977   -1122.1913   -19.104267    143.44901   -190.99109   -9.7707233 -0.026943844    7.4054803  -0.03135033    8.5513503 
    1000    8.0618073  0.023967619   -1122.1934     13.43748   -109.33057    149.10075   0.54225312 -0.027112146    7.4056486 -0.031190753    8.5511908 
Loop time of 30.2555 on 1 procs for 1000 steps with 24 atoms

Performance: 2.856 ns/day, 8.404 hours/ns, 33.052 timesteps/s
87.6% CPU use with 1 MPI tasks x no OpenMP threads

MPI task timing breakdown:
Section |  min time  |  avg time  |  max time  |%varavg| %total
---------------------------------------------------------------
Pair    | 0.0028279  | 0.0028279  | 0.0028279  |   0.0 |  0.01
Neigh   | 0          | 0          | 0          |   0.0 |  0.00
Comm    | 0.0047617  | 0.0047617  | 0.0047617  |   0.0 |  0.02
Output  | 0.0022175  | 0.0022175  | 0.0022175  |   0.0 |  0.01
Modify  | 30.24      | 30.24      | 30.24      |   0.0 | 99.95
Other   |            | 0.005804   |            |       |  0.02

Nlocal:        24.0000 ave          24 max          24 min
Histogram: 1 0 0 0 0 0 0 0 0 0
Nghost:        146.000 ave         146 max         146 min
Histogram: 1 0 0 0 0 0 0 0 0 0
Neighs:        540.000 ave         540 max         540 min
Histogram: 1 0 0 0 0 0 0 0 0 0

Total # of neighbors = 540
Ave neighs/atom = 22.500000
Neighbor list builds = 0
Dangerous builds = 0

unfix		therm
fix             therm all temp/berendsen  10.0 10.0 0.1
run		1000
Per MPI rank memory allocation (min/avg/max) = 4.064 | 4.064 | 4.064 Mbytes
Step Temp KinEng PotEng Press Pxx Pyy Pzz Xlo Xhi Ylo Yhi 
    1000    8.0618073  0.023967619   -1122.1934    12.573521   -106.59343    143.77221   0.54178447 -0.027112146    7.4056486 -0.031190753    8.5511908 
    1100    8.8511283  0.026314257   -1122.1929   -5.4098354    -81.72068    68.201562   -2.7103882 -0.026916148    7.4054526  -0.03147353    8.5514735 
    1200    8.5512531  0.025422733   -1122.1947   -20.791129    80.587166   -134.98906   -7.9714979 -0.026953039    7.4054895 -0.031498058    8.5514981 
    1300    9.4928451   0.02822207   -1122.1923    16.025466    34.194985    14.761288  -0.87987491 -0.027043407    7.4055798 -0.031410143    8.5514101 
    1400    9.5469999  0.028383072    -1122.194    3.0525553   -112.92272    119.70938    2.3710076 -0.027001374    7.4055378 -0.031442975     8.551443 
    1500    8.2476974  0.024520267   -1122.1898   -13.841384   -36.362717    3.4080302   -8.5694647 -0.026917685    7.4054541 -0.031498538    8.5514985 
    1600    9.5168561  0.028293455   -1122.1926    14.081833    115.41195   -78.638894    5.4724414 -0.026961786    7.4054982 -0.031539006     8.551539 
    1700    9.6623319  0.028725952   -1122.1958   -0.9123847    50.530081   -55.154924    1.8876888 -0.027032504    7.4055689 -0.031469108    8.5514691 
    1800    9.2485095  0.027495665   -1122.1919     5.613532   -100.89679    118.83233   -1.0949523  -0.02702757     7.405564    -0.031426     8.551426 
    1900    10.211061  0.030357315   -1122.1949    -4.820129   -43.729116    28.874257     0.394472 -0.026921527     7.405458 -0.031505899    8.5515059 
    2000    10.719518  0.031868948   -1122.1969  -0.62358601    85.285385   -89.789746    2.6336025 -0.026976621    7.4055131 -0.031546198    8.5515462 
Loop time of 30.0914 on 1 procs for 1000 steps with 24 atoms

Performance: 2.871 ns/day, 8.359 hours/ns, 33.232 timesteps/s
87.7% CPU use with 1 MPI tasks x no OpenMP threads

MPI task timing breakdown:
Section |  min time  |  avg time  |  max time  |%varavg| %total
---------------------------------------------------------------
Pair    | 0.0025971  | 0.0025971  | 0.0025971  |   0.0 |  0.01
Neigh   | 0          | 0          | 0          |   0.0 |  0.00
Comm    | 0.0041261  | 0.0041261  | 0.0041261  |   0.0 |  0.01
Output  | 0.0022683  | 0.0022683  | 0.0022683  |   0.0 |  0.01
Modify  | 30.077     | 30.077     | 30.077     |   0.0 | 99.95
Other   |            | 0.005067   |            |       |  0.02

Nlocal:        24.0000 ave          24 max          24 min
Histogram: 1 0 0 0 0 0 0 0 0 0
Nghost:        136.000 ave         136 max         136 min
Histogram: 1 0 0 0 0 0 0 0 0 0
Neighs:        468.000 ave         468 max         468 min
Histogram: 1 0 0 0 0 0 0 0 0 0

Total # of neighbors = 468
Ave neighs/atom = 19.500000
Neighbor list builds = 0
Dangerous builds = 0


Total wall time: 0:01:02
